[Molden Format]
made by pyscf v[2.12.1]
[Atoms] (AU)
O   1   8    -2.80655197436596    -0.21679800580895     0.00000000000000
H   2   1    -3.53079329105777     1.44053526913547     0.00000000000000
H   3   1    -1.00879882028348     0.07654795995953     0.00000000000000
O   4   8     2.67673781990801     0.21025931135538     0.00000000000000
H   5   1     3.29991847318420    -0.70665470154483    -1.43347253877620
H   6   1     3.29991847318420    -0.70665470154483     1.43347253877620
[GTO]
1 0
 s    6 1.00
           1355.584234  0.0091635962805625
           248.5448855    0.04936149294303
           69.53390229    0.16853830491035
           23.88677211    0.37056279972275
           9.275932609    0.41649152982557
           3.820341298      0.130334084108
 s    6 1.00
           52.18776196  -0.013252788089709
           10.32932006  -0.046991710138969
           3.210344977  -0.033785371509258
           1.235135428    0.25024178609451
           0.536420158    0.59511725258694
           0.245880606    0.24070617629472
 p    6 1.00
           52.18776196  0.0037596966004099
           10.32932006   0.037679369804108
           3.210344977    0.17389674351896
           1.235135428    0.41803643474557
           0.536420158    0.42585954774642
           0.245880606    0.10170829551109

2 0
 s    6 1.00
           35.52322122  0.0091635962807908
           6.513143725    0.04936149294426
           1.822142904    0.16853830491455
           0.625955266    0.37056279973198
           0.243076747    0.41649152983594
           0.100112428    0.13033408411125

3 0
 s    6 1.00
           35.52322122  0.0091635962807908
           6.513143725    0.04936149294426
           1.822142904    0.16853830491455
           0.625955266    0.37056279973198
           0.243076747    0.41649152983594
           0.100112428    0.13033408411125

4 0
 s    6 1.00
           1355.584234  0.0091635962805625
           248.5448855    0.04936149294303
           69.53390229    0.16853830491035
           23.88677211    0.37056279972275
           9.275932609    0.41649152982557
           3.820341298      0.130334084108
 s    6 1.00
           52.18776196  -0.013252788089709
           10.32932006  -0.046991710138969
           3.210344977  -0.033785371509258
           1.235135428    0.25024178609451
           0.536420158    0.59511725258694
           0.245880606    0.24070617629472
 p    6 1.00
           52.18776196  0.0037596966004099
           10.32932006   0.037679369804108
           3.210344977    0.17389674351896
           1.235135428    0.41803643474557
           0.536420158    0.42585954774642
           0.245880606    0.10170829551109

5 0
 s    6 1.00
           35.52322122  0.0091635962807908
           6.513143725    0.04936149294426
           1.822142904    0.16853830491455
           0.625955266    0.37056279973198
           0.243076747    0.41649152983594
           0.100112428    0.13033408411125

6 0
 s    6 1.00
           35.52322122  0.0091635962807908
           6.513143725    0.04936149294426
           1.822142904    0.16853830491455
           0.625955266    0.37056279973198
           0.243076747    0.41649152983594
           0.100112428    0.13033408411125

[5d]
[7f]
[9g]

[MO]
 Sym= A
 Ene=               0
 Spin= Alpha
 Occup=    1.00000
   1        0.221803041786
   2     -0.83786183916511
   3    -0.060708665093388
   4     -0.11129857479713
   5    1.7363997228214e-16
   6     -0.15811596758739
   7      -0.1523083121494
   8    0.00076195092738805
   9    -0.0015000859817858
  10    0.0054840425939366
  11    -0.0041548328614535
  12    1.0253158067171e-13
  13    0.0047618563589648
  14    0.0047618563591099
 Sym= A
 Ene=               1
 Spin= Alpha
 Occup=    1.00000
   1    0.0069780270061562
   2    -0.036236715152494
   3      0.49387071862476
   4     -0.23737767136908
   5    -7.527675619141e-15
   6     -0.39488920255601
   7      0.43205430003916
   8    -0.042777761453132
   9      0.19468083302075
  10     -0.30736502483796
  11     0.017304100681718
  12    -7.5524000860768e-13
  13    -0.057354867424385
  14    -0.057354867425454
 Sym= A
 Ene=               2
 Spin= Alpha
 Occup=    1.00000
   1    -0.037792311562745
   2      0.21083439357317
   3      0.16410697407006
   4     -0.28770090946857
   5    2.3123159410119e-14
   6     -0.25844460489327
   7     0.035899684303072
   8      0.10621368388316
   9     -0.50279011601673
  10      0.74298400675227
  11    -0.015885251520952
  12    1.5227881182305e-12
  13      0.12871884750913
  14      0.12871884751129
 Sym= A
 Ene=               3
 Spin= Alpha
 Occup=    1.00000
   1     0.086993551771667
   2     -0.48431151838482
   3      0.42330458610388
   4      0.63963117307779
   5    1.6631002379672e-14
   6      0.23750907390291
   7      0.26759429203873
   8     0.036615288914271
   9     -0.17895410860997
  10      0.25137578616359
  11    0.0013955182817008
  12    4.3962617472668e-13
  13     0.042516505774656
  14     0.042516505775278
 Sym= A
 Ene=               4
 Spin= Alpha
 Occup=    1.00000
   1    5.5957318087125e-16
   2    -3.0090763315692e-15
   3    7.2846581507024e-15
   4    5.7112080661495e-15
   5     -0.99999955236548
   6    1.0227444858409e-15
   7    1.6992458612608e-15
   8    3.6955286711292e-15
   9    -1.7019248202662e-14
  10    2.5778221419794e-14
  11    -2.9139115224959e-16
  12    0.0013518387437159
  13    0.00034367485991032
  14    -0.00034367485990151
 Sym= A
 Ene=               5
 Spin= Alpha
 Occup=    1.00000
   1    -0.039761962802462
   2      0.28412795205947
   3      0.19587023745338
   4      0.17465230802877
   5    1.4570451157756e-16
   6     -0.19122541403325
   7     -0.30923069404511
   8     -0.11964927203053
   9      0.85866607302706
  10      0.34244623624009
  11     -0.57063984706885
  12    -4.2851795417857e-15
  13     -0.74866861904914
  14     -0.74866861904913
 Sym= A
 Ene=               6
 Spin= Alpha
 Occup=    1.00000
   1      0.11395273486183
   2     -0.82856594300347
   3     -0.16141223538898
   4     -0.69311771480297
   5    4.2069110268089e-17
   6      0.89350107528947
   7      0.61439007234622
   8    -0.026838567884927
   9      0.21764633014742
  10      0.22390067938364
  11     -0.18840074445615
  12    -2.1985869909022e-15
  13     -0.25723970993067
  14     -0.25723970993067
 Sym= A
 Ene=               7
 Spin= Alpha
 Occup=    1.00000
   1    6.307846459827e-17
   2    -4.2894263997291e-16
   3    -6.2948999490511e-15
   4    3.0277797489014e-15
   5    -0.0021407242512363
   6    -5.4920634078509e-15
   7    6.2687748296586e-15
   8    5.3599223512852e-16
   9    -3.6870100067028e-15
  10    -1.1002054907368e-15
  11    2.0029705764643e-15
  12     -0.98226191692269
  13     -0.84097592927164
  14      0.84097592927165
 Sym= A
 Ene=               8
 Spin= Alpha
 Occup=    1.00000
   1     0.017694053283979
   2     -0.12843725250423
   3     -0.88767477772849
   4      0.37456698486541
   5    -2.8206671414082e-16
   6     -0.70856397766379
   7       0.9551529327832
   8    -0.0025552683048567
   9     0.047972493892214
  10      0.18418392662581
  11    -0.085513916208369
  12    6.7019257083126e-15
  13     -0.12582852507738
  14     -0.12582852507739
