[Molden Format]
made by pyscf v[2.12.1]
[Atoms] (AU)
O   1   8    -2.80655197436596    -0.21679800580895     0.00000000000000
H   2   1    -3.53079329105777     1.44053526913547     0.00000000000000
H   3   1    -1.00879882028348     0.07654795995953     0.00000000000000
O   4   8     2.67673781990801     0.21025931135538     0.00000000000000
H   5   1     3.29991847318420    -0.70665470154483    -1.43347253877620
H   6   1     3.29991847318420    -0.70665470154483     1.43347253877620
[GTO]
1 0
 s    6 1.00
           1355.584234  0.0091635962805625
           248.5448855    0.04936149294303
           69.53390229    0.16853830491035
           23.88677211    0.37056279972275
           9.275932609    0.41649152982557
           3.820341298      0.130334084108
 s    6 1.00
           52.18776196  -0.013252788089709
           10.32932006  -0.046991710138969
           3.210344977  -0.033785371509258
           1.235135428    0.25024178609451
           0.536420158    0.59511725258694
           0.245880606    0.24070617629472
 p    6 1.00
           52.18776196  0.0037596966004099
           10.32932006   0.037679369804108
           3.210344977    0.17389674351896
           1.235135428    0.41803643474557
           0.536420158    0.42585954774642
           0.245880606    0.10170829551109

2 0
 s    6 1.00
           35.52322122  0.0091635962807908
           6.513143725    0.04936149294426
           1.822142904    0.16853830491455
           0.625955266    0.37056279973198
           0.243076747    0.41649152983594
           0.100112428    0.13033408411125

3 0
 s    6 1.00
           35.52322122  0.0091635962807908
           6.513143725    0.04936149294426
           1.822142904    0.16853830491455
           0.625955266    0.37056279973198
           0.243076747    0.41649152983594
           0.100112428    0.13033408411125

4 0
 s    6 1.00
           1355.584234  0.0091635962805625
           248.5448855    0.04936149294303
           69.53390229    0.16853830491035
           23.88677211    0.37056279972275
           9.275932609    0.41649152982557
           3.820341298      0.130334084108
 s    6 1.00
           52.18776196  -0.013252788089709
           10.32932006  -0.046991710138969
           3.210344977  -0.033785371509258
           1.235135428    0.25024178609451
           0.536420158    0.59511725258694
           0.245880606    0.24070617629472
 p    6 1.00
           52.18776196  0.0037596966004099
           10.32932006   0.037679369804108
           3.210344977    0.17389674351896
           1.235135428    0.41803643474557
           0.536420158    0.42585954774642
           0.245880606    0.10170829551109

5 0
 s    6 1.00
           35.52322122  0.0091635962807908
           6.513143725    0.04936149294426
           1.822142904    0.16853830491455
           0.625955266    0.37056279973198
           0.243076747    0.41649152983594
           0.100112428    0.13033408411125

6 0
 s    6 1.00
           35.52322122  0.0091635962807908
           6.513143725    0.04936149294426
           1.822142904    0.16853830491455
           0.625955266    0.37056279973198
           0.243076747    0.41649152983594
           0.100112428    0.13033408411125

[5d]
[7f]
[9g]

[MO]
 Sym= A
 Ene=               0
 Spin= Alpha
 Occup=    1.00000
   1      0.99266351440574
   2     0.047033454521017
   3    0.0093087285253084
   4     0.017493021363045
   5    -1.2017188333008e-17
   6    -0.043923087102536
   7    -0.044118105984916
   8    -0.00039609676648739
   9    0.0017059199147407
  10    -0.0049638434643469
  11    0.00058228332668724
  12    5.4642071746335e-20
  13    0.0017921216711221
  14    0.0017921216711222
 Sym= A
 Ene=               1
 Spin= Alpha
 Occup=    1.00000
   1     -0.27922514771249
   2       1.2591706575363
   3      0.06308502140402
   4      0.11775415581777
   5    -4.3354527697203e-17
   6     -0.30452892858146
   7     -0.30728152892102
   8    -0.0025226438640936
   9     0.011049983285318
  10    -0.030212649288267
  11    0.0038403152310109
  12    -1.3095964210911e-17
  13     0.010665114025107
  14     0.010665114025107
 Sym= A
 Ene=               2
 Spin= Alpha
 Occup=    1.00000
   1    -0.0044688278513756
   2     0.033387493259865
   3       1.0778100532708
   4    -0.019303579180319
   5    -2.1754704326438e-16
   6     0.098334524998661
   7     -0.19888672855923
   8    -0.0013771527920024
   9    0.0039110154170704
  10    -0.021044313144908
  11    0.0046550451998524
  12    5.3078665239937e-18
  13    0.0095712186774931
  14     0.009571218677493
 Sym= A
 Ene=               3
 Spin= Alpha
 Occup=    1.00000
   1    -0.0077332348560908
   2     0.057925798044958
   3    -0.019734829305025
   4       1.0511766211592
   5    1.0470475959362e-16
   6     -0.16563473238132
   7    -0.0080869082368291
   8    -5.614839066053e-05
   9    -0.00018605819069596
  10    -0.0021975018320378
  11    0.00041145143452055
  12    -4.309826856797e-17
  13    0.0016867890398266
  14    0.0016867890398267
 Sym= A
 Ene=               4
 Spin= Alpha
 Occup=    1.00000
   1    -1.7687739584238e-18
   2    -3.7611811497441e-17
   3    -2.013464470397e-16
   4    9.6520662924747e-17
   5       1.0000006576343
   6    -1.7617632340224e-16
   7    2.3462080652168e-16
   8    2.2207988836357e-16
   9    -1.2268746947106e-16
  10    1.1108383666258e-16
  11    1.5722652335712e-17
  12    -0.00076194942415869
  13    0.0001613661744701
  14    -0.00016136617447004
 Sym= A
 Ene=               5
 Spin= Alpha
 Occup=    1.00000
   1     0.038512268288405
   2     -0.29652736728525
   3      0.16129697755895
   4     -0.30259153805588
   5    -2.094787897842e-16
   6       1.2247105096734
   7    -0.096605634679297
   8    -0.00059194282620953
   9    0.0028958070503223
  10    -0.0053732136962559
  11    -0.0006031729208212
  12    3.4048128452818e-17
  13    0.00084910449977046
  14    0.00084910449977053
 Sym= A
 Ene=               6
 Spin= Alpha
 Occup=    1.00000
   1     0.038324523431335
   2     -0.29326929811966
   3     -0.33727733979564
   4    -0.027933185565698
   5    3.0549543067649e-16
   6    -0.097139804092421
   7       1.2325374838504
   8    0.0070502460433656
   9    -0.027523645945833
  10     0.094822256550783
  11    -0.0060000657743787
  12    5.3775179028705e-18
  13    -0.033268641810293
  14    -0.033268641810293
 Sym= A
 Ene=               7
 Spin= Alpha
 Occup=    1.00000
   1    -0.00025428624818137
   2    0.0018997868230813
   3    0.0021401140975004
   4    0.00010693456731901
   5    1.8337291592405e-16
   6    0.00040316195584223
   7    -0.0044320047638403
   8      0.99265569063474
   9     0.047009088643535
  10      0.01076250252362
  11    -0.016199355058267
  12    4.3446575549951e-18
  13    -0.043488733505842
  14    -0.043488733505842
 Sym= A
 Ene=               8
 Spin= Alpha
 Occup=    1.00000
   1    -0.0021698933923807
   2     0.017458642913104
   3     0.015719691663102
   4    0.0012459148182687
   5    -1.315031664635e-16
   6    0.0028017362650214
   7    -0.050348868612461
   8     -0.27947562972183
   9       1.2600413374672
  10     0.071026074356868
  11     -0.10952186082637
  12    -8.1402466080163e-17
  13     -0.30195931014469
  14     -0.30195931014469
 Sym= A
 Ene=               9
 Spin= Alpha
 Occup=    1.00000
   1    0.00023914011369626
   2    -0.0012462221752962
   3    0.0030694810022851
   4    5.7379150877197e-05
   5    1.1965651097032e-16
   6    -0.00013865928460711
   7     0.025678437604922
   8    -0.0044089483909418
   9     0.033610312415608
  10       1.0143935358478
  11    -0.016081719328342
  12    -4.009382591025e-17
  13    -0.053257635887198
  14    -0.053257635887198
 Sym= A
 Ene=              10
 Spin= Alpha
 Occup=    0.00000
   1    -0.00015730754910522
   2    0.0014919007576354
   3    -7.8831154878366e-05
   4    -0.00012429560696408
   5    1.2357124207828e-17
   6    -0.00019358380495916
   7    -0.0067608720518115
   8    0.0072004139740377
   9    -0.054469403600237
  10    -0.021425870988654
  11        1.027789419099
  12    2.0167566463137e-17
  13     0.082505404065316
  14     0.082505404065316
 Sym= A
 Ene=              11
 Spin= Alpha
 Occup=    0.00000
   1    -5.059456056617e-18
   2    2.1105593920817e-17
   3    1.3558637220813e-18
   4    -4.0325110802002e-17
   5    0.00032460496885222
   6    -5.7151539099655e-18
   7    -3.9180670554331e-17
   8    -2.1175027350922e-17
   9    9.6372060560349e-17
  10    7.2576713193436e-17
  11    -3.7808625772206e-17
  12       1.0870421449566
  13      0.16492842560692
  14     -0.16492842560692
 Sym= A
 Ene=              12
 Spin= Alpha
 Occup=    0.00000
   1    -0.0003597982129067
   2     0.003286804705153
   3    -0.00010246760180536
   4    0.00054102212570977
   5    0.0011960158264892
   6    0.00055704842466283
   7    -0.023036193417831
   8     0.038142748068552
   9     -0.29399239992188
  10     -0.10947545641013
  11      0.15428096406156
  12      0.28615444187789
  13       1.2240798833023
  14    -0.095363569045187
 Sym= A
 Ene=              13
 Spin= Alpha
 Occup=    0.00000
   1    -0.00035979821290665
   2     0.003286804705153
   3    -0.00010246760180529
   4    0.00054102212570992
   5    -0.0011960158264893
   6    0.00055704842466289
   7    -0.023036193417831
   8     0.038142748068552
   9     -0.29399239992188
  10     -0.10947545641013
  11      0.15428096406156
  12     -0.28615444187789
  13    -0.095363569045187
  14       1.2240798833023
