[Molden Format]
made by pyscf v[2.12.1]
[Atoms] (AU)
O   1   8    -2.80655197436596    -0.21679800580895     0.00000000000000
H   2   1    -3.53079329105777     1.44053526913547     0.00000000000000
H   3   1    -1.00879882028348     0.07654795995953     0.00000000000000
O   4   8     2.67673781990801     0.21025931135538     0.00000000000000
H   5   1     3.29991847318420    -0.70665470154483    -1.43347253877620
H   6   1     3.29991847318420    -0.70665470154483     1.43347253877620
[GTO]
1 0
 s    6 1.00
           1355.584234  0.0091635962805625
           248.5448855    0.04936149294303
           69.53390229    0.16853830491035
           23.88677211    0.37056279972275
           9.275932609    0.41649152982557
           3.820341298      0.130334084108
 s    6 1.00
           52.18776196  -0.013252788089709
           10.32932006  -0.046991710138969
           3.210344977  -0.033785371509258
           1.235135428    0.25024178609451
           0.536420158    0.59511725258694
           0.245880606    0.24070617629472
 p    6 1.00
           52.18776196  0.0037596966004099
           10.32932006   0.037679369804108
           3.210344977    0.17389674351896
           1.235135428    0.41803643474557
           0.536420158    0.42585954774642
           0.245880606    0.10170829551109

2 0
 s    6 1.00
           35.52322122  0.0091635962807908
           6.513143725    0.04936149294426
           1.822142904    0.16853830491455
           0.625955266    0.37056279973198
           0.243076747    0.41649152983594
           0.100112428    0.13033408411125

3 0
 s    6 1.00
           35.52322122  0.0091635962807908
           6.513143725    0.04936149294426
           1.822142904    0.16853830491455
           0.625955266    0.37056279973198
           0.243076747    0.41649152983594
           0.100112428    0.13033408411125

4 0
 s    6 1.00
           1355.584234  0.0091635962805625
           248.5448855    0.04936149294303
           69.53390229    0.16853830491035
           23.88677211    0.37056279972275
           9.275932609    0.41649152982557
           3.820341298      0.130334084108
 s    6 1.00
           52.18776196  -0.013252788089709
           10.32932006  -0.046991710138969
           3.210344977  -0.033785371509258
           1.235135428    0.25024178609451
           0.536420158    0.59511725258694
           0.245880606    0.24070617629472
 p    6 1.00
           52.18776196  0.0037596966004099
           10.32932006   0.037679369804108
           3.210344977    0.17389674351896
           1.235135428    0.41803643474557
           0.536420158    0.42585954774642
           0.245880606    0.10170829551109

5 0
 s    6 1.00
           35.52322122  0.0091635962807908
           6.513143725    0.04936149294426
           1.822142904    0.16853830491455
           0.625955266    0.37056279973198
           0.243076747    0.41649152983594
           0.100112428    0.13033408411125

6 0
 s    6 1.00
           35.52322122  0.0091635962807908
           6.513143725    0.04936149294426
           1.822142904    0.16853830491455
           0.625955266    0.37056279973198
           0.243076747    0.41649152983594
           0.100112428    0.13033408411125

[5d]
[7f]
[9g]

[MO]
 Sym= A
 Ene=               0
 Spin= Alpha
 Occup=    1.00000
   1     0.038512268288405
   2     -0.29652736728525
   3      0.16129697755895
   4     -0.30259153805588
   5    -2.094787897842e-16
   6       1.2247105096734
   7    -0.096605634679297
   8    -0.00059194282620953
   9    0.0028958070503223
  10    -0.0053732136962559
  11    -0.0006031729208212
  12    3.4048128452818e-17
  13    0.00084910449977046
  14    0.00084910449977053
