[Molden Format]
made by pyscf v[2.12.1]
[Atoms] (AU)
O   1   8    -2.80655197436596    -0.21679800580895     0.00000000000000
H   2   1    -3.53079329105777     1.44053526913547     0.00000000000000
H   3   1    -1.00879882028348     0.07654795995953     0.00000000000000
O   4   8     2.67673781990801     0.21025931135538     0.00000000000000
H   5   1     3.29991847318420    -0.70665470154483    -1.43347253877620
H   6   1     3.29991847318420    -0.70665470154483     1.43347253877620
[GTO]
1 0
 s    6 1.00
           1355.584234  0.0091635962805625
           248.5448855    0.04936149294303
           69.53390229    0.16853830491035
           23.88677211    0.37056279972275
           9.275932609    0.41649152982557
           3.820341298      0.130334084108
 s    6 1.00
           52.18776196  -0.013252788089709
           10.32932006  -0.046991710138969
           3.210344977  -0.033785371509258
           1.235135428    0.25024178609451
           0.536420158    0.59511725258694
           0.245880606    0.24070617629472
 p    6 1.00
           52.18776196  0.0037596966004099
           10.32932006   0.037679369804108
           3.210344977    0.17389674351896
           1.235135428    0.41803643474557
           0.536420158    0.42585954774642
           0.245880606    0.10170829551109

2 0
 s    6 1.00
           35.52322122  0.0091635962807908
           6.513143725    0.04936149294426
           1.822142904    0.16853830491455
           0.625955266    0.37056279973198
           0.243076747    0.41649152983594
           0.100112428    0.13033408411125

3 0
 s    6 1.00
           35.52322122  0.0091635962807908
           6.513143725    0.04936149294426
           1.822142904    0.16853830491455
           0.625955266    0.37056279973198
           0.243076747    0.41649152983594
           0.100112428    0.13033408411125

4 0
 s    6 1.00
           1355.584234  0.0091635962805625
           248.5448855    0.04936149294303
           69.53390229    0.16853830491035
           23.88677211    0.37056279972275
           9.275932609    0.41649152982557
           3.820341298      0.130334084108
 s    6 1.00
           52.18776196  -0.013252788089709
           10.32932006  -0.046991710138969
           3.210344977  -0.033785371509258
           1.235135428    0.25024178609451
           0.536420158    0.59511725258694
           0.245880606    0.24070617629472
 p    6 1.00
           52.18776196  0.0037596966004099
           10.32932006   0.037679369804108
           3.210344977    0.17389674351896
           1.235135428    0.41803643474557
           0.536420158    0.42585954774642
           0.245880606    0.10170829551109

5 0
 s    6 1.00
           35.52322122  0.0091635962807908
           6.513143725    0.04936149294426
           1.822142904    0.16853830491455
           0.625955266    0.37056279973198
           0.243076747    0.41649152983594
           0.100112428    0.13033408411125

6 0
 s    6 1.00
           35.52322122  0.0091635962807908
           6.513143725    0.04936149294426
           1.822142904    0.16853830491455
           0.625955266    0.37056279973198
           0.243076747    0.41649152983594
           0.100112428    0.13033408411125

[5d]
[7f]
[9g]

[MO]
 Sym= A
 Ene=               0
 Spin= Alpha
 Occup=    1.00000
   1     -0.11749558722463
   2      0.34475892071934
   3      0.17840550927483
   4      0.54571753372161
   5    -7.4352762296974e-17
   6       0.3725263761876
   7      0.18973181833342
   8    0.0094799653950303
   9    -0.049983599253077
  10     0.088712171657974
  11     0.010501203382237
  12    3.4742943001157e-17
  13     0.011666619104081
  14     0.011666619104081
 Sym= A
 Ene=               1
 Spin= Alpha
 Occup=    1.00000
   1    0.0040208050661695
   2    -0.041121360991991
   3      0.62128560250102
   4     -0.12401833665775
   5    6.9794983518767e-16
   6     -0.36469411915906
   7      0.46887673893593
   8     0.017781448129504
   9    -0.095177187696566
  10      0.15710489963996
  11      0.02168365854426
  12    -1.5368932309111e-16
  13     0.021329021076523
  14     0.021329021076524
 Sym= A
 Ene=               2
 Spin= Alpha
 Occup=    1.00000
   1      0.12121220435805
   2      -0.8796052163149
   3     -0.25059894337063
   4     -0.69693245372918
   5    -2.0537823981562e-17
   6      0.87867687592832
   7      0.71675831910418
   8     0.016463874459287
   9    -0.093660336702027
  10     0.096858329641773
  11     0.019371849032642
  12    3.7496015637327e-18
  13     0.015512575527065
  14     0.015512575527065
 Sym= A
 Ene=               3
 Spin= Alpha
 Occup=    1.00000
   1    -0.012808677639612
   2     0.092160503613656
   3      0.88812593355481
   4      -0.4067601197608
   5    3.1993733000865e-16
   6      0.75159870114688
   7     -0.92943533358525
   8    -0.018180653590035
   9      0.10365402846819
  10     -0.10825698993368
  11    -0.020200574028074
  12    3.636643243279e-17
  13    -0.014025629927799
  14    -0.014025629927799
