[Molden Format]
made by pyscf v[2.12.1]
[Atoms] (AU)
O   1   8    -2.80655197436596    -0.21679800580895     0.00000000000000
H   2   1    -3.53079329105777     1.44053526913547     0.00000000000000
H   3   1    -1.00879882028348     0.07654795995953     0.00000000000000
O   4   8     2.67673781990801     0.21025931135538     0.00000000000000
H   5   1     3.29991847318420    -0.70665470154483    -1.43347253877620
H   6   1     3.29991847318420    -0.70665470154483     1.43347253877620
[GTO]
1 0
 s    8 1.00
                 11720  0.00070964594651845
                  1759  0.0054672722921914
                 400.8   0.027823118610189
                 113.7    0.10474773971146
                 37.03    0.28292084635691
                 13.27    0.44849523869833
                 5.025    0.27081688521277
                 1.013    0.01545029160744
 s    8 1.00
                 11720  -0.00031444341168873
                  1759  -0.0024821376810179
                 400.8  -0.012316355381583
                 113.7  -0.050538917343672
                 37.03   -0.13938490331632
                 13.27   -0.32507749481778
                 5.025   -0.22984830758785
                 1.013     1.0953793467883
 s    1 1.00
                0.3023                   1
 p    3 1.00
                  17.7   0.062679166281506
                 3.854    0.33353656587936
                 1.046    0.74123964163973
 p    1 1.00
                0.2753                   1
 d    1 1.00
                 1.185                   1

2 0
 s    3 1.00
                 13.01   0.033498726389998
                 1.962    0.23480080117413
                0.4446     0.8136829578829
 s    1 1.00
                 0.122                   1
 p    1 1.00
                 0.727                   1

3 0
 s    3 1.00
                 13.01   0.033498726389998
                 1.962    0.23480080117413
                0.4446     0.8136829578829
 s    1 1.00
                 0.122                   1
 p    1 1.00
                 0.727                   1

4 0
 s    8 1.00
                 11720  0.00070964594651845
                  1759  0.0054672722921914
                 400.8   0.027823118610189
                 113.7    0.10474773971146
                 37.03    0.28292084635691
                 13.27    0.44849523869833
                 5.025    0.27081688521277
                 1.013    0.01545029160744
 s    8 1.00
                 11720  -0.00031444341168873
                  1759  -0.0024821376810179
                 400.8  -0.012316355381583
                 113.7  -0.050538917343672
                 37.03   -0.13938490331632
                 13.27   -0.32507749481778
                 5.025   -0.22984830758785
                 1.013     1.0953793467883
 s    1 1.00
                0.3023                   1
 p    3 1.00
                  17.7   0.062679166281506
                 3.854    0.33353656587936
                 1.046    0.74123964163973
 p    1 1.00
                0.2753                   1
 d    1 1.00
                 1.185                   1

5 0
 s    3 1.00
                 13.01   0.033498726389998
                 1.962    0.23480080117413
                0.4446     0.8136829578829
 s    1 1.00
                 0.122                   1
 p    1 1.00
                 0.727                   1

6 0
 s    3 1.00
                 13.01   0.033498726389998
                 1.962    0.23480080117413
                0.4446     0.8136829578829
 s    1 1.00
                 0.122                   1
 p    1 1.00
                 0.727                   1

[5d]
[7f]
[9g]

[MO]
 Sym= A
 Ene=               0
 Spin= Alpha
 Occup=    1.00000
   1       1.0049374334485
   2     0.017266484654889
   3     0.015943738087792
   4    0.0058558145715761
   5     0.010439468744458
   6    6.1395579978654e-18
   7    0.0033824920953962
   8    0.0073364316449407
   9    -7.6237450846182e-20
  10    0.00010383612789302
  11    1.7916746460221e-18
  12    1.0952980071234e-18
  13    6.2183032121058e-05
  14    -0.00017806651912254
  15    -0.026468664147465
  16     -0.01733451842471
  17    -0.00085987042739406
  18    0.0011173966794981
  19    2.149411010866e-18
  20    -0.027040605441447
  21     -0.01628334325463
  22    0.0011405756983389
  23    -0.00019820969038514
  24    1.5077636853398e-18
  25    0.00012703792966896
  26    0.0010755052464455
  27    0.00073445840989906
  28    -0.0040174801820718
  29    0.00066330752810381
  30    -9.5427542805253e-19
  31    -0.0018773265787168
  32    0.00029164017633146
  33    3.6580639728101e-19
  34    4.0857167684396e-05
  35    -2.4486722079889e-19
  36    2.2046143401658e-19
  37    -4.672284830031e-05
  38    -8.5356321417837e-05
  39    0.0017949014529786
  40    0.00077891235468156
  41    3.0233207943981e-05
  42    -3.2106835140269e-05
  43    -3.820053192586e-05
  44    0.0017949014529786
  45    0.00077891235468156
  46    3.0233207943982e-05
  47    -3.2106835140269e-05
  48    3.8200531925858e-05
 Sym= A
 Ene=               1
 Spin= Alpha
 Occup=    1.00000
   1     0.031198816727884
   2      0.62908948047418
   3      0.64751909879857
   4     0.040988467444668
   5     0.071221043212459
   6    -7.6558427540343e-18
   7    -0.0040078561010665
   8    -0.004183407007654
   9    -9.1894540595518e-19
  10    0.0016284767944294
  11    2.6907938068217e-17
  12    3.3328370087199e-17
  13    0.0020701521139841
  14    -0.0033544370093902
  15     -0.10424875822642
  16     -0.17514762104392
  17     0.010010897607654
  18    -0.028452284346899
  19    2.1647225376691e-17
  20     -0.11440128966479
  21     -0.17183061236621
  22    -0.031937306731253
  23    -0.0074311320651533
  24    4.1733042550832e-18
  25     0.001149895439481
  26    0.0095014201073717
  27    0.0080568149933713
  28    -0.033453654023359
  29    0.0069351189555873
  30    -2.5888389712788e-18
  31    -0.017350970290625
  32    0.0034256743518819
  33    6.9856897562736e-18
  34    0.00023894419422983
  35    -1.5882228366294e-18
  36    3.3076153981769e-18
  37    -0.00015343767514199
  38    -0.00062618371864028
  39     0.015137665742643
  40    0.0078690604123305
  41    0.00074022238894583
  42    6.398595741726e-05
  43    1.1810376044474e-06
  44     0.015137665742643
  45    0.0078690604123305
  46    0.00074022238894583
  47    6.3985957417257e-05
  48    -1.1810376044542e-06
 Sym= A
 Ene=               2
 Spin= Alpha
 Occup=    1.00000
   1     0.017753025604972
   2     0.051932468732712
   3    -0.023122902350739
   4      0.76615469293849
   5    -0.051306541486313
   6    1.0605950883948e-16
   7      0.43958325970983
   8     0.004678065254644
   9    -2.2031112498941e-16
  10    -0.0053158297029293
  11    -9.0888382887536e-17
  12    -3.3234536818548e-16
  13     0.010284947633374
  14     0.013994957317177
  15     0.085729080812807
  16      0.12237092420759
  17      0.01060931600453
  18     0.027159077318596
  19    1.3956134476489e-16
  20    -0.061542580340488
  21     -0.24773044569217
  22    -0.049561280386379
  23    -0.0050492799302965
  24    2.9985226856843e-16
  25    0.0030004404974873
  26     0.013811670582451
  27    0.0071939450718745
  28    -0.036335101848391
  29    0.0065782931613929
  30    -1.0909599613595e-16
  31    -0.017012197056714
  32    0.0029282197218179
  33    6.6447868238212e-17
  34    -0.00070186573442047
  35    -2.0119759998827e-16
  36    -1.1179742842054e-16
  37    0.0015605505975146
  38    -0.0010408742199689
  39     0.014409898694416
  40     0.011939257407878
  41    0.0025833314094557
  42    0.00052139903504046
  43    0.00021564708782402
  44     0.014409898694416
  45     0.011939257407878
  46    0.0025833314094551
  47    0.00052139903504026
  48    -0.00021564708782394
 Sym= A
 Ene=               3
 Spin= Alpha
 Occup=    1.00000
   1     0.034470488171176
   2     0.098107267802706
   3    -0.051955640401252
   4    -0.052385870468209
   5      0.70136226679893
   6    -4.4244154004489e-16
   7     0.010402722725699
   8      0.44125832410382
   9    5.4168058969699e-16
  10    -0.010516827098479
  11    -6.357132193959e-17
  12    1.3809229997611e-16
  13    -0.013067159437706
  14     0.003749379609668
  15    -0.013756908728255
  16     -0.18910448116917
  17      0.03051551673364
  18    -0.030525199000095
  19    -8.9472553583552e-17
  20     0.067661433143813
  21    -0.024344512311531
  22    -0.0081489848295328
  23     0.023009404574963
  24    -1.145649843764e-16
  25    -0.00051536720911993
  26    -0.001541617661272
  27    -0.0015755509069605
  28    -0.00023720542558617
  29    -0.0014490567004185
  30    1.3312384585213e-16
  31    -0.0077471500655278
  32    0.0048776218210338
  33    -2.228520584859e-16
  34    -0.00028924371683356
  35    8.1019441056988e-17
  36    1.0954298181534e-16
  37    0.00070554258790333
  38    -0.00019170039735936
  39    0.0046916878899566
  40    0.0034931457525387
  41    0.0011797640332238
  42    -0.00016335518201124
  43    0.0014309955889798
  44    0.0046916878899562
  45    0.0034931457525396
  46    0.0011797640332239
  47    -0.00016335518201106
  48     -0.00143099558898
 Sym= A
 Ene=               4
 Spin= Alpha
 Occup=    1.00000
   1    -1.2327540832131e-16
   2    -3.7451769587922e-16
   3    -6.4311182781033e-16
   4    4.955135094569e-16
   5    2.7169690863592e-16
   6      0.62719702800988
   7    -9.3474134147685e-16
   8    -4.3045172626486e-16
   9      0.50067066451675
  10    -4.2166948072424e-16
  11    0.0082000233581033
  12     0.015545703873911
  13    1.2325695118376e-16
  14    -1.0466490871533e-16
  15    -2.5194592855938e-16
  16    3.1381456164286e-16
  17    -2.2803883082146e-16
  18    -4.7572776913828e-16
  19     0.030823179831196
  20    1.5674358867552e-16
  21    6.5564309881396e-16
  22    -6.2078242442243e-16
  23    -1.4418056148701e-16
  24     0.029149384301602
  25    -1.8541782560165e-16
  26    -2.9476029769131e-16
  27    -2.5855701961345e-16
  28    5.2594114656743e-17
  29    3.0849367852365e-16
  30    -0.001689422923118
  31    -4.0619865150961e-16
  32    1.9599792543377e-16
  33    0.0024016565019644
  34    -3.0082615249721e-16
  35    -0.00057507488501834
  36    9.9910483567634e-05
  37    8.7533294064254e-17
  38    1.2709163595377e-16
  39    0.0099513512918608
  40    -0.010466097887855
  41    0.00026865630063943
  42    0.00042382056353802
  43    -0.00058307752677253
  44    -0.0099513512918594
  45     0.010466097887855
  46    -0.00026865630063935
  47    -0.00042382056353743
  48    -0.00058307752677263
 Sym= A
 Ene=               5
 Spin= Alpha
 Occup=    1.00000
   1    -0.033360002455226
   2     -0.14858108566241
   3     -0.23199314639258
   4      0.12227946835755
   5     -0.20555518637204
   6    -1.5508361091715e-16
   7     0.093301974568832
   8     -0.16739495782098
   9    3.8107878860204e-16
  10    -0.003954411618112
  11    -1.9050452602789e-18
  12    1.6944084074503e-16
  13    -0.012379427459242
  14    -0.0059976731901985
  15      0.87760724040864
  16      0.55921911503911
  17     0.012632954889478
  18    -0.022898490699889
  19    -9.1523989481492e-17
  20     -0.10159065504059
  21    -0.071523475401153
  22    -0.0094642659877121
  23     0.010282055653325
  24    -1.5402639698135e-16
  25    -2.8206169418179e-05
  26    0.0018319377737675
  27    0.0050159028597289
  28    -0.0049559119493039
  29    -0.00014943898278616
  30    8.3528106237323e-17
  31    -0.004872623249409
  32    -0.0011796851758754
  33    -2.4026189836654e-16
  34    0.00026655322749464
  35    1.173865870712e-16
  36    5.7564035667938e-17
  37    -0.00069444559869664
  38    -9.5453141845722e-05
  39    0.0010825974430618
  40    0.0018719201744264
  41    -0.00073334943169387
  42    8.6247244383083e-05
  43    -0.00031607061136525
  44     0.001082597443062
  45    0.0018719201744267
  46    -0.00073334943169362
  47    8.6247244383285e-05
  48    0.00031607061136511
 Sym= A
 Ene=               6
 Spin= Alpha
 Occup=    1.00000
   1    -0.036947813859541
   2     -0.15849711972913
   3     -0.22422007261798
   4     -0.24230305539018
   5    -0.0085856514257163
   6    2.9269789001115e-17
   7     -0.18747940734815
   8    -0.013571315202386
   9    -2.7877552124621e-16
  10    -0.0038627277823248
  11    -5.5442871305375e-17
  12    -1.9592234331333e-16
  13     0.010527563119692
  14    0.0088246206060229
  15     -0.10193770649848
  16    -0.069480365424996
  17     0.014342277776039
  18    -0.0034430429956631
  19    3.7960448073049e-17
  20      0.89293431406926
  21      0.56713388677834
  22    -0.022368512213195
  23    -0.0015324653059909
  24    1.2092356806679e-16
  25    -0.0010862206015725
  26    -0.020094548228368
  27    -0.022867948468467
  28     0.084820062029775
  29    -0.011404569028193
  30    -2.8549629263268e-17
  31     0.053037354671512
  32    -0.0053308785476844
  33    1.916814936456e-16
  34    -0.00086004674154658
  35    -1.0708904902431e-16
  36    -7.6337113466083e-17
  37    0.0010255562031354
  38    0.0020529803299944
  39    -0.040420343343958
  40    -0.022031645123324
  41    -0.0026530330980555
  42    -2.0499102529988e-05
  43    -0.00026365607940458
  44    -0.040420343343959
  45    -0.022031645123324
  46    -0.0026530330980557
  47    -2.049910253017e-05
  48    0.00026365607940475
 Sym= A
 Ene=               7
 Spin= Alpha
 Occup=    1.00000
   1    0.00017233810638164
   2    0.00060674261884071
   3    0.00017449459802514
   4    0.00095934006891603
   5    -5.4556889580394e-05
   6    -6.5934768751549e-17
   7    0.00030449314417398
   8    3.1582907423472e-05
   9    -4.9270236636696e-17
  10    1.7437659252332e-06
  11    1.3600284548831e-19
  12    -2.6823067122692e-18
  13    -2.5041054798699e-05
  14    -9.685465339922e-06
  15    0.0003666431375385
  16    -0.00019901624726864
  17    -6.2444561755292e-05
  18    1.655758286915e-05
  19    -3.5883886676573e-18
  20    -0.001022963476631
  21    0.00024894689790631
  22    0.00048227549696201
  23    -3.2208038411368e-05
  24    -4.1569475184741e-18
  25       1.0047599162073
  26     0.016809764782757
  27     0.016479279067898
  28    0.0065700712987636
  29    -0.0097661618241551
  30    3.697577298458e-17
  31    0.0048781657215935
  32    -0.006791796880366
  33    6.4218040240827e-17
  34    0.00013930291187302
  35    3.0482813506488e-18
  36    -1.227675520398e-18
  37    6.8169364029625e-05
  38    0.0001261245357713
  39    -0.026393157745647
  40    -0.016982548228617
  41    0.00025082389060352
  42    -0.00044863407635197
  43    -0.0012837663354389
  44    -0.026393157745647
  45    -0.016982548228617
  46    0.00025082389060353
  47    -0.00044863407635198
  48     0.001283766335439
 Sym= A
 Ene=               8
 Spin= Alpha
 Occup=    1.00000
   1    0.0034465669044557
   2     0.010709339181526
   3    0.0018658647445057
   4     0.010999163338214
   5    -0.0002944381472201
   6    -1.590735832448e-16
   7    0.0022820123190911
   8    0.00037001917084668
   9    -8.953851075373e-18
  10    0.00030211563124961
  11    -2.6214365563073e-17
  12    1.5081659946936e-16
  13    -0.00063280665731935
  14    -0.00043643373471693
  15    0.0040382740596132
  16    -0.0035039386696408
  17    -0.0012664691108794
  18    -0.00013135281795907
  19    1.4454038798758e-17
  20    -0.027854208733858
  21    -0.0004606396350223
  22    0.0042097625557648
  23    -0.00074755117397608
  24    -6.2725130382644e-17
  25     0.030578616328684
  26      0.62715937206912
  27      0.64786719848796
  28     0.043323310596799
  29    -0.065100588942952
  30    1.7528609245555e-16
  31    -0.0020910163338205
  32    0.0031145473187073
  33    -5.9527635393622e-16
  34    0.0025378102578456
  35    2.5598720984041e-18
  36    1.3188680605635e-17
  37    0.0020786131231951
  38    0.0026402054538809
  39     -0.10216851265461
  40     -0.17516996587818
  41    -0.010892066745746
  42     0.016764219479363
  43     0.022500966271571
  44     -0.10216851265461
  45     -0.17516996587818
  46    -0.010892066745746
  47     0.016764219479364
  48    -0.022500966271572
 Sym= A
 Ene=               9
 Spin= Alpha
 Occup=    1.00000
   1    -0.013650625345765
   2    -0.038717406291409
   3    0.0021976550947153
   4     -0.02894049832778
   5    -0.0035035424576227
   6    -3.756761972875e-16
   7    0.00020303123454782
   8    -0.0023752448545571
   9    3.1476974726797e-16
  10    -0.00093847509177842
  11    -9.0093940730065e-18
  12    1.3474275446839e-16
  13    0.0017402958543737
  14    0.0016318694784537
  15    -0.010555743960589
  16    0.0090777753334992
  17     0.002716503138319
  18    0.00035240429984126
  19    -2.1963287699842e-18
  20       0.1061727842323
  21     0.015109819645966
  22    0.00091841888331814
  23    0.0015638638692419
  24    -4.9245167552348e-17
  25     0.023468777521431
  26     0.063141485768416
  27    -0.049321350644992
  28      0.66142363141295
  29    -0.022296243803697
  30    -3.555261439942e-17
  31      0.47408942365635
  32     0.028343728709926
  33    -6.9134283947347e-16
  34    -0.0018169910847348
  35    -7.019642283761e-17
  36    2.6922024749046e-16
  37    0.0084194803036827
  38    -0.013239012038987
  39     0.011299247095693
  40    -0.058686066876388
  41     0.020322267541022
  42     0.014228053239177
  43     0.022081765612176
  44     0.011299247095692
  45    -0.058686066876385
  46     0.020322267541022
  47     0.014228053239177
  48    -0.022081765612177
 Sym= A
 Ene=              10
 Spin= Alpha
 Occup=    0.00000
   1    0.0037652364043008
   2      0.01092435273109
   3    6.3123303847101e-05
   4    0.0087395305075985
   5    -0.0011717874301928
   6    -8.7500688036867e-17
   7    -0.00032677684781752
   8    0.0031816526574619
   9    5.5325525474771e-16
  10    3.6173438771868e-06
  11    1.5034157277215e-17
  12    1.1363959750374e-16
  13    -0.00019263951547321
  14    -0.00012017436042902
  15    -0.0024113571265876
  16    -0.0019373754924553
  17    0.00018281995568863
  18    0.00053741001218329
  19    -5.9825554762289e-18
  20    -0.025753258863762
  21    -0.00062556697269438
  22    0.00010792911368696
  23    0.0024946100163741
  24    -1.4593246233081e-16
  25    -0.031413552289489
  26    -0.088570094955414
  27     0.052947584264096
  28    -0.025418596898684
  29      0.66321693334617
  30    -9.341824257716e-17
  31     0.027757862168934
  32      0.45749219920165
  33    5.6842805117168e-16
  34    0.0039012287031483
  35    1.4964069880604e-16
  36    5.055376575378e-18
  37      0.01435030273623
  38    0.0072794319903023
  39     -0.02333599081192
  40     0.094360177124722
  41     0.012759744648955
  42     0.010637412419207
  43    -0.029633861267595
  44     -0.02333599081192
  45     0.094360177124721
  46     0.012759744648956
  47     0.010637412419208
  48     0.029633861267595
 Sym= A
 Ene=              11
 Spin= Alpha
 Occup=    0.00000
   1    -4.3455625287129e-17
   2    5.853446767649e-17
   3    1.2229783383109e-15
   4    -7.1183020427776e-16
   5    2.690712931542e-16
   6    0.00074009402877491
   7    3.5590426591277e-15
   8    -6.9956161295927e-16
   9    0.0009408606387883
  10    1.8230328269121e-16
  11    -0.00028030973430897
  12    -4.497166481282e-05
  13    2.5819918248804e-16
  14    -1.7591833693083e-16
  15    -8.1755363417923e-16
  16    3.5449223647971e-15
  17    -1.6873800606985e-15
  18    -7.563874399511e-16
  19    -0.00035757837694388
  20    -5.5661354936901e-16
  21    -4.4113506287058e-15
  22    2.9564536665614e-16
  23    1.2564460012274e-15
  24     0.002714366588885
  25    -5.1248151470275e-16
  26    -1.2046395800873e-15
  27    1.8612715137064e-15
  28    3.2663305348495e-17
  29    1.5835366504693e-15
  30      0.79367765923619
  31    -5.0900602515663e-16
  32    -1.6799571946939e-15
  33      0.43013507243877
  34    7.0007313867789e-18
  35    0.0099784586700049
  36    -0.016002381246932
  37    -2.1131671198139e-16
  38    2.0183412907114e-16
  39     0.076473956351249
  40      0.20173300918277
  41     0.017616165910489
  42     -0.02555354140092
  43    -0.024533260555404
  44    -0.076473956351252
  45     -0.20173300918276
  46    -0.017616165910489
  47     0.025553541400919
  48    -0.024533260555406
 Sym= A
 Ene=              12
 Spin= Alpha
 Occup=    0.00000
   1    0.0021721695967486
   2    0.0072370953486779
   3    0.0062858675776564
   4    0.0047576385835072
   5    0.00060956384517311
   6    0.0011622639101451
   7     0.003151102277278
   8    0.00083006182284286
   9    0.00057385552540153
  10    0.0001605251404196
  11    -0.00032352603727065
  12    -5.140380319017e-05
  13    -0.00030883595128257
  14    -0.00019521935196748
  15    0.0017617001142268
  16    0.0026463737536917
  17    0.00017522587666057
  18    0.00020642081081551
  19    -0.00016828049555088
  20    -0.033819718636613
  21    -0.025211191938696
  22    -0.0031770714188856
  23    5.3326509058536e-05
  24    0.00094024046322368
  25    -0.033925563776286
  26     -0.14889674799951
  27     -0.22800452941162
  28    -0.074702779571277
  29      0.10136724351316
  30      0.20498908558941
  31    -0.059302446072098
  32      0.08465836989294
  33      0.16137204605342
  34    0.00053646002419989
  35    -0.007162440818754
  36     0.011193211971078
  37    -0.0018117112631689
  38    -0.0040228893641756
  39       0.8788704227571
  40      0.55830440326099
  41    -0.007973357311642
  42     0.011266520534758
  43     0.022047625763034
  44    -0.097149403452334
  45     -0.06786393259399
  46    0.0023780483560376
  47    -0.003612271684125
  48    -0.013328761930608
 Sym= A
 Ene=              13
 Spin= Alpha
 Occup=    0.00000
   1    0.0021721695967485
   2    0.0072370953486779
   3    0.0062858675776576
   4    0.0047576385835066
   5    0.00060956384517329
   6    -0.0011622639101449
   7    0.0031511022772815
   8    0.0008300618228421
   9    -0.00057385552540145
  10    0.00016052514041977
  11    0.00032352603727061
  12    5.1403803190255e-05
  13    -0.00030883595128234
  14    -0.00019521935196766
  15    0.0017617001142263
  16    0.0026463737536951
  17    0.00017522587665896
  18    0.00020642081081477
  19    0.00016828049555089
  20    -0.033819718636613
  21    -0.025211191938701
  22    -0.0031770714188853
  23    5.3326509059739e-05
  24    -0.00094024046322366
  25    -0.033925563776286
  26     -0.14889674799951
  27     -0.22800452941161
  28    -0.074702779571277
  29      0.10136724351316
  30     -0.20498908558941
  31    -0.059302446072099
  32     0.084658369892939
  33     -0.16137204605342
  34    0.00053646002419988
  35    0.0071624408187539
  36    -0.011193211971078
  37    -0.0018117112631691
  38    -0.0040228893641753
  39    -0.097149403452335
  40    -0.067863932593992
  41    0.0023780483560376
  42    -0.0036122716841257
  43     0.013328761930609
  44       0.8788704227571
  45      0.55830440326099
  46    -0.0079733573116423
  47     0.011266520534758
  48    -0.022047625763035
